 &FCI NORB=   2,NELEC= 2,MS2=0,
  ORBSYM=1,1,
  ISYM=1,
 &END
 0.6744887663568383    1    1    1    1
 0.6634680964235684    1    1    2    2
 0.1812888082114961    2    1    2    1
 0.6634680964235684    2    2    1    1
 0.6973937674230266    2    2    2    2
 -1.252463573564899    1    1  0  0
 -0.4759487152209636    2    2  0  0
 0.7137539936876183  0  0  0  0
